81
 energy: -107.811139266115 gnorm: 0.000929957928 xtb: 6.5.1 (b24c23e)
C           -1.47141559360517        1.91753715776892       -3.79235164913821
C           -0.66372225715517        1.10441744479179       -2.78422814597266
C           -0.81368062989735        1.60306389628998       -1.33444282739457
C           -1.13155268919035        0.39430244471583       -0.41690707431397
O           -2.45397397609632        0.01072134761018       -0.70972729110737
Si          -3.17206922925304       -1.44397457588912       -0.48143055264212
C           -3.53901376932909       -1.76629234959505        1.36394028030925
C           -4.78439367288975       -1.23543589151398       -1.50665612637101
C           -5.54268558051460        0.01939370838188       -1.06930649208060
C           -5.68649406312370       -2.45100200840857       -1.29643339049702
C           -4.46302439313368       -1.11762624385565       -2.99846936298376
C           -2.08096935189104       -2.86707480310725       -1.13411998714614
C           -1.00604699970543        0.72289247211700        1.03767709779785
C           -1.75252015331366        1.63244643147417        1.72614535905871
O           -1.35062678076805        1.71964728687200        3.00857955795564
C           -0.34673666159820        0.84413022630983        3.16332127110434
C           -0.07480796940468        0.19848124648617        1.99084213031363
C            0.96425816188516       -0.83137032835047        1.78507642988584
C            3.52832131696923        0.93854708074468        0.82208453585000
C            4.30408016001308        1.17022487918270        2.09824545951271
C            3.95439786259364       -0.13531079245053       -0.01196766016752
O            5.04509154216620       -0.76561067748456        0.51913142786168
C            5.64640767164884       -1.91869505840864       -0.09585856510608
C            6.81553678775048       -2.27489233192172        0.83081708948796
C            4.65907691102869       -3.09033274942322       -0.15415784723085
C            6.17801263918965       -1.59109850693848       -1.49554275725023
O            3.43009331772012       -0.52055323494970       -1.06329529451552
C            0.38179269351862        2.43104762803672       -0.82680125426307
C            0.60340445739440        3.72565719631093       -1.61631539842840
C           -0.49215759266287        4.76815692241657       -1.42724442384777
C            1.67954483114455        1.61620427707332       -0.76220189998930
C            2.42412516574549        1.74707833731758        0.56600675315709
O            2.00747611018901        2.60518911833168        1.40745114093334
H           -1.36209651166720        1.48784372745384       -4.78602883954095
H           -2.52626714410226        1.89945673589129       -3.52780542147631
H           -1.14112949575062        2.95130425778559       -3.83164670793479
H            0.39010609952480        1.10126792856160       -3.06637052164926
H           -1.01595435162732        0.07232847554213       -2.83525310075759
H           -1.70879661724699        2.23131036021597       -1.27713809776636
H           -0.46078875312763       -0.43976948503823       -0.65443223060738
H           -4.09206115299748       -2.68904766764773        1.50221540439624
H           -4.11999778260622       -0.96225358588096        1.80569557906804
H           -2.61936776894706       -1.86053388536749        1.93385567829487
H           -5.83243746727591       -0.05413773725927       -0.02429873387493
H           -6.44554273533020        0.14480413247176       -1.66692025653755
H           -4.91686763033033        0.89777850109061       -1.19488380388363
H           -5.18135592108955       -3.36515556111121       -1.59917749219001
H           -6.59822842733693       -2.35603038008540       -1.88604351716123
H           -5.96624547818167       -2.54794976088806       -0.25074721459406
H           -3.79860505866642       -0.27720219510813       -3.17739188043917
H           -3.97995426005173       -2.02215618979605       -3.36100722438399
H           -5.37588437236406       -0.96604065636275       -3.57458969569157
H           -1.66984593304941       -2.63972913454082       -2.11387508952516
H           -2.63101343271594       -3.79802676680671       -1.21598401210570
H           -1.24750365985123       -3.05200504072084       -0.46291123338244
H           -2.59906107658625        2.21743568676534        1.41736682979829
H            0.08732226867278        0.73350538992237        4.14050802232498
H            1.28008236791009       -0.90958847651710        0.74929607417894
H            1.82984585617307       -0.65888233002902        2.41943725313048
H            5.35342000909121        1.36832687825617        1.88127136029305
H            4.26641561987495        0.29947925835257        2.75494891389915
H            3.88087648456518        2.02663800481911        2.61683514867914
H            7.33607595171735       -3.14830481893900        0.45032007278647
H            6.44548998507127       -2.48575446761301        1.83067944865184
H            7.50922916392607       -1.44034350911437        0.88877249931433
H            3.82948830335535       -2.84804516503928       -0.81295260252904
H            5.16239339279020       -3.97594262417619       -0.53090299333039
H            4.26964864521821       -3.29989795603431        0.84028494766419
H            6.86229048508494       -0.74668699401211       -1.44417581576599
H            6.70311519257745       -2.45266552760361       -1.89785162569952
H            5.35556294101254       -1.33380389486331       -2.15726793246330
H            0.14411822086548        2.73517155225032        0.20383497511507
H            0.70476179786006        3.48945646319744       -2.67645929422671
H            1.55237318935813        4.15150956073170       -1.28033096919748
H           -0.57540911885928        5.04544555877349       -0.36965542362655
H           -1.45252014417967        4.39457719464540       -1.77318818630466
H           -0.24999042567519        5.66137089827790       -1.99907807304870
H            1.48827133360896        0.56149388629265       -0.94149624592991
H            2.37266752726710        1.92120502149626       -1.54879651320024
K            0.35700445372992        3.72251148199618        2.18152022047047
Br           0.31740480394754       -2.62909987417509        2.27388841393579
